LAMMPS data file. CGCMM style. atom_style atomic generated by VMD/TopoTools v1.7 on Mon Nov 19 21:55:19 +0100 2018
 8 atoms
 0 bonds
 0 angles
 0 dihedrals
 0 impropers
 1 atom types
 0 bond types
 0 angle types
 0 dihedral types
 0 improper types
 -0.500000 0.500000  xlo xhi
 -0.500000 0.500000  ylo yhi
 -0.500000 0.500000  zlo zhi

# Pair Coeffs
#
# 1  CA

 Masses

 1 12.010700 # CA

 Atoms # atomic

1 1 -0.614012 -1.418000 0.000000 # CA
2 1 -1.842036 -0.709000 0.000000 # CA
3 1 -1.842036 0.709000 0.000000 # CA
4 1 -0.614012 1.418000 0.000000 # CA
5 1 1.842036 -1.418000 0.000000 # CA
6 1 0.614012 -0.709000 0.000000 # CA
7 1 0.614012 0.709000 0.000000 # CA
8 1 1.842036 1.418000 0.000000 # CA

